
                                 *****************
                                 * O   R   C   A *
                                 *****************

                                            #,                                       
                                            ###                                      
                                            ####                                     
                                            #####                                    
                                            ######                                   
                                           ########,                                 
                                     ,,################,,,,,                         
                               ,,#################################,,                 
                          ,,##########################################,,             
                       ,#########################################, ''#####,          
                    ,#############################################,,   '####,        
                  ,##################################################,,,,####,       
                ,###########''''           ''''###############################       
              ,#####''   ,,,,##########,,,,          '''####'''          '####       
            ,##' ,,,,###########################,,,                        '##       
           ' ,,###''''                  '''############,,,                           
         ,,##''                                '''############,,,,        ,,,,,,###''
      ,#''                                            '''#######################'''  
     '                                                          ''''####''''         
             ,#######,   #######,   ,#######,      ##                                
            ,#'     '#,  ##    ##  ,#'     '#,    #''#        ######   ,####,        
            ##       ##  ##   ,#'  ##            #'  '#       #        #'  '#        
            ##       ##  #######   ##           ,######,      #####,   #    #        
            '#,     ,#'  ##    ##  '#,     ,#' ,#      #,         ##   #,  ,#        
             '#######'   ##     ##  '#######'  #'      '#     #####' # '####'        



                  #######################################################
                  #                        -***-                        #
                  #          Department of theory and spectroscopy      #
                  #    Directorship and core code : Frank Neese         #
                  #        Max Planck Institute fuer Kohlenforschung    #
                  #                Kaiser Wilhelm Platz 1               #
                  #                 D-45470 Muelheim/Ruhr               #
                  #                      Germany                        #
                  #                                                     #
                  #                  All rights reserved                #
                  #                        -***-                        #
                  #######################################################


                         Program Version 5.0.3 -  RELEASE  -


 With contributions from (in alphabetic order):
   Daniel Aravena         : Magnetic Suceptibility
   Michael Atanasov       : Ab Initio Ligand Field Theory (pilot matlab implementation)
   Alexander A. Auer      : GIAO ZORA, VPT2 properties, NMR spectrum
   Ute Becker             : Parallelization
   Giovanni Bistoni       : ED, misc. LED, open-shell LED, HFLD
   Martin Brehm           : Molecular dynamics
   Dmytro Bykov           : SCF Hessian
   Vijay G. Chilkuri      : MRCI spin determinant printing, contributions to CSF-ICE
   Dipayan Datta          : RHF DLPNO-CCSD density
   Achintya Kumar Dutta   : EOM-CC, STEOM-CC
   Dmitry Ganyushin       : Spin-Orbit,Spin-Spin,Magnetic field MRCI
   Miquel Garcia          : C-PCM and meta-GGA Hessian, CC/C-PCM, Gaussian charge scheme
   Yang Guo               : DLPNO-NEVPT2, F12-NEVPT2, CIM, IAO-localization
   Andreas Hansen         : Spin unrestricted coupled pair/coupled cluster methods
   Benjamin Helmich-Paris : MC-RPA, TRAH-SCF, COSX integrals
   Lee Huntington         : MR-EOM, pCC
   Robert Izsak           : Overlap fitted RIJCOSX, COSX-SCS-MP3, EOM
   Marcus Kettner         : VPT2
   Christian Kollmar      : KDIIS, OOCD, Brueckner-CCSD(T), CCSD density, CASPT2, CASPT2-K
   Simone Kossmann        : Meta GGA functionals, TD-DFT gradient, OOMP2, MP2 Hessian
   Martin Krupicka        : Initial AUTO-CI
   Lucas Lang             : DCDCAS
   Marvin Lechner         : AUTO-CI (C++ implementation), FIC-MRCC
   Dagmar Lenk            : GEPOL surface, SMD
   Dimitrios Liakos       : Extrapolation schemes; Compound Job, initial MDCI parallelization
   Dimitrios Manganas     : Further ROCIS development; embedding schemes
   Dimitrios Pantazis     : SARC Basis sets
   Anastasios Papadopoulos: AUTO-CI, single reference methods and gradients
   Taras Petrenko         : DFT Hessian,TD-DFT gradient, ASA, ECA, R-Raman, ABS, FL, XAS/XES, NRVS
   Peter Pinski           : DLPNO-MP2, DLPNO-MP2 Gradient
   Christoph Reimann      : Effective Core Potentials
   Marius Retegan         : Local ZFS, SOC
   Christoph Riplinger    : Optimizer, TS searches, QM/MM, DLPNO-CCSD(T), (RO)-DLPNO pert. Triples
   Tobias Risthaus        : Range-separated hybrids, TD-DFT gradient, RPA, STAB
   Michael Roemelt        : Original ROCIS implementation
   Masaaki Saitow         : Open-shell DLPNO-CCSD energy and density
   Barbara Sandhoefer     : DKH picture change effects
   Avijit Sen             : IP-ROCIS
   Kantharuban Sivalingam : CASSCF convergence, NEVPT2, FIC-MRCI
   Bernardo de Souza      : ESD, SOC TD-DFT
   Georgi Stoychev        : AutoAux, RI-MP2 NMR, DLPNO-MP2 response
   Willem Van den Heuvel  : Paramagnetic NMR
   Boris Wezisla          : Elementary symmetry handling
   Frank Wennmohs         : Technical directorship


 We gratefully acknowledge several colleagues who have allowed us to
 interface, adapt or use parts of their codes:
   Stefan Grimme, W. Hujo, H. Kruse, P. Pracht,  : VdW corrections, initial TS optimization,
                  C. Bannwarth, S. Ehlert          DFT functionals, gCP, sTDA/sTD-DF
   Ed Valeev, F. Pavosevic, A. Kumar             : LibInt (2-el integral package), F12 methods
   Garnet Chan, S. Sharma, J. Yang, R. Olivares  : DMRG
   Ulf Ekstrom                                   : XCFun DFT Library
   Mihaly Kallay                                 : mrcc  (arbitrary order and MRCC methods)
   Jiri Pittner, Ondrej Demel                    : Mk-CCSD
   Frank Weinhold                                : gennbo (NPA and NBO analysis)
   Christopher J. Cramer and Donald G. Truhlar   : smd solvation model
   Lars Goerigk                                  : TD-DFT with DH, B97 family of functionals
   V. Asgeirsson, H. Jonsson                     : NEB implementation
   FAccTs GmbH                                   : IRC, NEB, NEB-TS, DLPNO-Multilevel, CI-OPT
                                                   MM, QMMM, 2- and 3-layer-ONIOM, Crystal-QMMM,
                                                   LR-CPCM, SF, NACMEs, symmetry and pop. for TD-DFT,
                                                   nearIR, NL-DFT gradient (VV10), updates on ESD,
                                                   ML-optimized integration grids
   S Lehtola, MJT Oliveira, MAL Marques          : LibXC Library
   Liviu Ungur et al                             : ANISO software


 Your calculation uses the libint2 library for the computation of 2-el integrals
 For citations please refer to: http://libint.valeyev.net

 Your ORCA version has been built with support for libXC version: 5.1.0
 For citations please refer to: https://tddft.org/programs/libxc/

 This ORCA versions uses:
   CBLAS   interface :  Fast vector & matrix operations
   LAPACKE interface :  Fast linear algebra routines
   SCALAPACK package :  Parallel linear algebra routines
   Shared memory     :  Shared parallel matrices
   BLAS/LAPACK       :  OpenBLAS 0.3.19 NO_AFFINITY VORTEX SINGLE_THREADED
        Core in use  :  VORTEX
   Copyright (c) 2011-2014, The OpenBLAS Project


================================================================================

----- Orbital basis set information -----
Your calculation utilizes the basis: def2-TZVP
   F. Weigend and R. Ahlrichs, Phys. Chem. Chem. Phys. 7, 3297 (2005).

----- AuxJ basis set information -----
Your calculation utilizes the auxiliary basis: def2/J
   F. Weigend, Phys. Chem. Chem. Phys. 8, 1057 (2006).

================================================================================
                                        WARNINGS
                       Please study these warnings very carefully!
================================================================================


WARNING: Geometry Optimization
  ===> : Switching off AutoStart
         For restart on a previous wavefunction, please use MOREAD

INFO   : the flag for use of the SHARK integral package has been found!

================================================================================
                                       INPUT FILE
================================================================================
NAME = /Users/cxs454/Desktop/DecomPoly/code/Atom2.inp
|  1> #Powered by MCPoly
|  2> 
|  3> ! B3LYP def2-TZVP OPT FREQ
|  4> %maxcore 4096
|  5> %PAL NPROCS 8 END
|  6> 
|  7> *xyz 0 1
|  8>   C   -2.05053486346266      1.56369707769167      0.00002752233311
|  9>   C   -1.35467533469059      1.69354439394728      1.19790763451955
| 10>   H   -1.89614944299438      1.79465122673590      2.13054455659932
| 11>   C   0.03676207148578      1.69354076459445      1.19785797895796
| 12>   H   0.57829806137222      1.79464643472009      2.13045911886401
| 13>   C   0.73253535463287      1.56369036536840     -0.00007166225279
| 14>   H   1.81568023694377      1.56368716992743     -0.00011175546193
| 15>   C   0.03667499083524      1.43384233062553     -1.19795403809774
| 16>   H   0.57814901969505      1.33273416463020     -2.13059081549339
| 17>   C   -1.35476102772742      1.43384548101093     -1.19790469284650
| 18>   H   -1.89629932420653      1.33274133311300     -2.13050452864198
| 19>   H   -3.13367974188334      1.56369925763512      0.00006068152037
| 20> *
| 21> 
| 22>                          ****END OF INPUT****
================================================================================

                       *****************************
                       * Geometry Optimization Run *
                       *****************************

Geometry optimization settings:
Update method            Update   .... BFGS
Choice of coordinates    CoordSys .... Z-matrix Internals
Initial Hessian          InHess   .... Almoef's Model

Convergence Tolerances:
Energy Change            TolE     ....  5.0000e-06 Eh
Max. Gradient            TolMAXG  ....  3.0000e-04 Eh/bohr
RMS Gradient             TolRMSG  ....  1.0000e-04 Eh/bohr
Max. Displacement        TolMAXD  ....  4.0000e-03 bohr
RMS Displacement         TolRMSD  ....  2.0000e-03 bohr
Strict Convergence                ....  False
------------------------------------------------------------------------------
                        ORCA OPTIMIZATION COORDINATE SETUP
------------------------------------------------------------------------------

The optimization will be done in new redundant internal coordinates
Making redundant internal coordinates   ...  (new redundants) done
Evaluating the initial hessian          ...  (Almloef) done
Evaluating the coordinates              ...  done
Calculating the B-matrix                .... done
Calculating the G-matrix                .... done
Diagonalizing the G-matrix              .... done
The first mode is                       ....   24
The number of degrees of freedom        ....   30

    -----------------------------------------------------------------
                    Redundant Internal Coordinates


    -----------------------------------------------------------------
         Definition                    Initial Value    Approx d2E/dq
    -----------------------------------------------------------------
      1. B(C   1,C   0)                  1.3914         0.621588   
      2. B(H   2,C   1)                  1.0832         0.369268   
      3. B(C   3,C   1)                  1.3914         0.621506   
      4. B(H   4,C   3)                  1.0832         0.369268   
      5. B(C   5,C   3)                  1.3914         0.621589   
      6. B(H   6,C   5)                  1.0831         0.369284   
      7. B(C   7,C   5)                  1.3914         0.621583   
      8. B(H   8,C   7)                  1.0832         0.369268   
      9. B(C   9,C   7)                  1.3914         0.621509   
     10. B(C   9,C   0)                  1.3914         0.621583   
     11. B(H  10,C   9)                  1.0832         0.369268   
     12. B(H  11,C   0)                  1.0831         0.369284   
     13. A(C   1,C   0,C   9)          119.9890         0.434465   
     14. A(C   1,C   0,H  11)          120.0058         0.354571   
     15. A(C   9,C   0,H  11)          120.0052         0.354571   
     16. A(C   0,C   1,H   2)          119.9988         0.354569   
     17. A(H   2,C   1,C   3)          119.9957         0.354561   
     18. A(C   0,C   1,C   3)          120.0055         0.434456   
     19. A(H   4,C   3,C   5)          119.9991         0.354569   
     20. A(C   1,C   3,C   5)          120.0055         0.434456   
     21. A(C   1,C   3,H   4)          119.9954         0.354561   
     22. A(C   3,C   5,H   6)          120.0056         0.354571   
     23. A(H   6,C   5,C   7)          120.0054         0.354571   
     24. A(C   3,C   5,C   7)          119.9890         0.434465   
     25. A(H   8,C   7,C   9)          119.9957         0.354561   
     26. A(C   5,C   7,C   9)          120.0055         0.434455   
     27. A(C   5,C   7,H   8)          119.9988         0.354568   
     28. A(C   0,C   9,H  10)          119.9990         0.354568   
     29. A(C   0,C   9,C   7)          120.0055         0.434455   
     30. A(C   7,C   9,H  10)          119.9955         0.354561   
     31. D(C   3,C   1,C   0,C   9)      0.0000         0.026744   
     32. D(C   3,C   1,C   0,H  11)    180.0000         0.026744   
     33. D(H   2,C   1,C   0,H  11)     -0.0008         0.026744   
     34. D(H   2,C   1,C   0,C   9)    179.9993         0.026744   
     35. D(C   5,C   3,C   1,C   0)      0.0000         0.026737   
     36. D(H   4,C   3,C   1,C   0)    179.9992         0.026737   
     37. D(H   4,C   3,C   1,H   2)     -0.0001         0.026737   
     38. D(C   5,C   3,C   1,H   2)   -179.9992         0.026737   
     39. D(C   7,C   5,C   3,H   4)   -179.9992         0.026744   
     40. D(C   7,C   5,C   3,C   1)     -0.0000         0.026744   
     41. D(H   6,C   5,C   3,H   4)      0.0009         0.026744   
     42. D(H   6,C   5,C   3,C   1)   -180.0000         0.026744   
     43. D(C   9,C   7,C   5,C   3)      0.0000         0.026744   
     44. D(H   8,C   7,C   5,H   6)      0.0008         0.026744   
     45. D(H   8,C   7,C   5,C   3)   -179.9991         0.026744   
     46. D(C   9,C   7,C   5,H   6)    180.0000         0.026744   
     47. D(H  10,C   9,C   7,H   8)     -0.0001         0.026737   
     48. D(C   0,C   9,C   7,H   8)    179.9992         0.026737   
     49. D(C   0,C   9,C   7,C   5)      0.0000         0.026737   
     50. D(H  10,C   9,C   0,H  11)     -0.0007         0.026744   
     51. D(H  10,C   9,C   0,C   1)    179.9992         0.026744   
     52. D(H  10,C   9,C   7,C   5)   -179.9993         0.026737   
     53. D(C   7,C   9,C   0,H  11)    180.0000         0.026744   
     54. D(C   7,C   9,C   0,C   1)     -0.0000         0.026744   
    -----------------------------------------------------------------

Number of atoms                         .... 12
Number of degrees of freedom            .... 54

         *************************************************************
         *                GEOMETRY OPTIMIZATION CYCLE   1            *
         *************************************************************
---------------------------------
CARTESIAN COORDINATES (ANGSTROEM)
---------------------------------
  C     -2.050535    1.563697    0.000028
  C     -1.354675    1.693544    1.197908
  H     -1.896149    1.794651    2.130545
  C      0.036762    1.693541    1.197858
  H      0.578298    1.794646    2.130459
  C      0.732535    1.563690   -0.000072
  H      1.815680    1.563687   -0.000112
  C      0.036675    1.433842   -1.197954
  H      0.578149    1.332734   -2.130591
  C     -1.354761    1.433845   -1.197905
  H     -1.896299    1.332741   -2.130505
  H     -3.133680    1.563699    0.000061

----------------------------
CARTESIAN COORDINATES (A.U.)
----------------------------
  NO LB      ZA    FRAG     MASS         X           Y           Z
   0 C     6.0000    0    12.011   -3.874949    2.954959    0.000052
   1 C     6.0000    0    12.011   -2.559965    3.200335    2.263717
   2 H     1.0000    0     1.008   -3.583203    3.391399    4.026146
   3 C     6.0000    0    12.011    0.069470    3.200328    2.263624
   4 H     1.0000    0     1.008    1.092825    3.391390    4.025984
   5 C     6.0000    0    12.011    1.384291    2.954947   -0.000135
   6 H     1.0000    0     1.008    3.431138    2.954941   -0.000211
   7 C     6.0000    0    12.011    0.069306    2.709569   -2.263805
   8 H     1.0000    0     1.008    1.092543    2.518503   -4.026233
   9 C     6.0000    0    12.011   -2.560127    2.709575   -2.263712
  10 H     1.0000    0     1.008   -3.583486    2.518516   -4.026070
  11 H     1.0000    0     1.008   -5.921797    2.954963    0.000115

--------------------------------
INTERNAL COORDINATES (ANGSTROEM)
--------------------------------
 C      0   0   0     0.000000000000     0.00000000     0.00000000
 C      1   0   0     1.391401298150     0.00000000     0.00000000
 H      2   1   0     1.083156696894   119.99881198     0.00000000
 C      2   1   3     1.391437407067   120.00550594   180.00076535
 H      4   2   1     1.083156715821   119.99536330   179.99915262
 C      4   2   1     1.391401097100   120.00550739     0.00000000
 H      6   4   2     1.083144883058   120.00558520   180.00001300
 C      6   4   2     1.391403731629   119.98900483     0.00000000
 H      8   6   4     1.083156657050   119.99883378   180.00087242
 C      1   2   3     1.391403701238   119.98902231   179.99925290
 H     10   1   2     1.083156604098   119.99902066   179.99923644
 H      1   2   3     1.083144878930   120.00579857     0.00000000

---------------------------
INTERNAL COORDINATES (A.U.)
---------------------------
 C      0   0   0     0.000000000000     0.00000000     0.00000000
 C      1   0   0     2.629367395886     0.00000000     0.00000000
 H      2   1   0     2.046869517252   119.99881198     0.00000000
 C      2   1   3     2.629435631850   120.00550594   180.00076535
 H      4   2   1     2.046869553019   119.99536330   179.99915262
 C      4   2   1     2.629367015957   120.00550739     0.00000000
 H      6   4   2     2.046847192337   120.00558520   180.00001300
 C      6   4   2     2.629371994495   119.98900483     0.00000000
 H      8   6   4     2.046869441958   119.99883378   180.00087242
 C      1   2   3     2.629371937065   119.98902231   179.99925290
 H     10   1   2     2.046869341894   119.99902066   179.99923644
 H      1   2   3     2.046847184538   120.00579857     0.00000000

---------------------
BASIS SET INFORMATION
---------------------
There are 2 groups of distinct atoms

 Group   1 Type C   : 11s6p2d1f contracted to 5s3p2d1f pattern {62111/411/11/1}
 Group   2 Type H   : 5s1p contracted to 3s1p pattern {311/1}

Atom   0C    basis set group =>   1
Atom   1C    basis set group =>   1
Atom   2H    basis set group =>   2
Atom   3C    basis set group =>   1
Atom   4H    basis set group =>   2
Atom   5C    basis set group =>   1
Atom   6H    basis set group =>   2
Atom   7C    basis set group =>   1
Atom   8H    basis set group =>   2
Atom   9C    basis set group =>   1
Atom  10H    basis set group =>   2
Atom  11H    basis set group =>   2
---------------------------------
AUXILIARY/J BASIS SET INFORMATION
---------------------------------
There are 2 groups of distinct atoms

 Group   1 Type C   : 12s5p4d2f1g contracted to 6s4p3d1f1g pattern {711111/2111/211/2/1}
 Group   2 Type H   : 5s2p1d contracted to 3s1p1d pattern {311/2/1}

Atom   0C    basis set group =>   1
Atom   1C    basis set group =>   1
Atom   2H    basis set group =>   2
Atom   3C    basis set group =>   1
Atom   4H    basis set group =>   2
Atom   5C    basis set group =>   1
Atom   6H    basis set group =>   2
Atom   7C    basis set group =>   1
Atom   8H    basis set group =>   2
Atom   9C    basis set group =>   1
Atom  10H    basis set group =>   2
Atom  11H    basis set group =>   2

ORCA finished by error termination in GTOInt
Calling Command: mpirun -np 8  ./orca_gtoint_mpi /Users/cxs454/Desktop/DecomPoly/code/Atom2.int.tmp /Users/cxs454/Desktop/DecomPoly/code/Atom2 
[file orca_tools/qcmsg.cpp, line 465]: 
  .... aborting the run

